<?xml version="1.0" encoding="UTF-8"?>

<!-- generated on 2022-09-02 09:22:15 by Eclipse SUMO sumo Version 1.14.1
<configuration xmlns:xsi="http://www.w3.org/2001/XMLSchema-instance" xsi:noNamespaceSchemaLocation="http://sumo.dlr.de/xsd/sumoConfiguration.xsd">

    <input>
        <net-file value="net_config/san-francisco.net.xml"/>
        <additional-files value="net_config/add.add.xml"/>
    </input>

    <output>
        <tripinfo-output value="net_config/tripinfo.xml"/>
    </output>

    <time>
        <step-length value="1"/>
    </time>

    <processing>
        <time-to-teleport value="0"/>
    </processing>

    <traci_server>
        <remote-port value="64794"/>
    </traci_server>

    <gui_only>
        <gui-settings-file value="net_config/gui-settings.cfg"/>
    </gui_only>

</configuration>
-->

<tripinfos xmlns:xsi="http://www.w3.org/2001/XMLSchema-instance" xsi:noNamespaceSchemaLocation="http://sumo.dlr.de/xsd/tripinfo_file.xsd">
    <tripinfo id="driver_6" depart="1.00" departLane="502795941_0" departPos="4.03" departSpeed="0.00" departDelay="0.00" arrival="5.00" arrivalLane=":65334139_3_0" arrivalPos="2.13" arrivalSpeed="2.13" duration="4.00" routeLength="2.13" waitingTime="2.00" waitingCount="1" stopTime="0.00" timeLoss="2.68" rerouteNo="3" devices="tripinfo_driver_6" vType="DEFAULT_VEHTYPE" speedFactor="1.05" vaporized="traci"/>
    <tripinfo id="driver_7" depart="2.00" departLane="-48211062#4_0" departPos="5.10" departSpeed="0.00" departDelay="0.00" arrival="21.00" arrivalLane="88396406#3_0" arrivalPos="12.57" arrivalSpeed="7.51" duration="19.00" routeLength="147.12" waitingTime="0.00" waitingCount="0" stopTime="0.00" timeLoss="5.47" rerouteNo="0" devices="tripinfo_driver_7" vType="DEFAULT_VEHTYPE" speedFactor="0.89" vaporized="traci"/>
    <tripinfo id="driver_45" depart="5.00" departLane="-254396719#1_0" departPos="5.10" departSpeed="0.00" departDelay="0.00" arrival="21.00" arrivalLane="254971067#1_0" arrivalPos="0.30" arrivalSpeed="7.30" duration="16.00" routeLength="158.55" waitingTime="0.00" waitingCount="0" stopTime="0.00" timeLoss="7.62" rerouteNo="1" devices="tripinfo_driver_45" vType="DEFAULT_VEHTYPE" speedFactor="1.09" vaporized="traci"/>
    <tripinfo id="driver_93" depart="10.00" departLane="-84654238#1_0" departPos="0.20" departSpeed="0.00" departDelay="0.00" arrival="23.00" arrivalLane="-290052331#2_0" arrivalPos="0.20" arrivalSpeed="12.15" duration="13.00" routeLength="105.50" waitingTime="0.00" waitingCount="0" stopTime="0.00" timeLoss="3.50" rerouteNo="0" devices="tripinfo_driver_93" vType="DEFAULT_VEHTYPE" speedFactor="1.09" vaporized=""/>
    <tripinfo id="driver_110" depart="25.00" departLane="-277480424_0" departPos="5.10" departSpeed="0.00" departDelay="1.00" arrival="26.00" arrivalLane="-277480424_0" arrivalPos="5.10" arrivalSpeed="0.00" duration="1.00" routeLength="0.00" waitingTime="0.00" waitingCount="0" stopTime="0.00" timeLoss="0.00" rerouteNo="0" devices="tripinfo_driver_110" vType="DEFAULT_VEHTYPE" speedFactor="0.87" vaporized="traci"/>
    <tripinfo id="driver_36" depart="4.00" departLane="-254756526#1_0" departPos="5.10" departSpeed="0.00" departDelay="0.00" arrival="26.00" arrivalLane=":65352417_9_0" arrivalPos="5.70" arrivalSpeed="6.11" duration="22.00" routeLength="292.59" waitingTime="0.00" waitingCount="0" stopTime="0.00" timeLoss="6.83" rerouteNo="1" devices="tripinfo_driver_36" vType="DEFAULT_VEHTYPE" speedFactor="0.97" vaporized="traci"/>
    <tripinfo id="driver_11" depart="2.00" departLane="-721174653_0" departPos="5.10" departSpeed="0.00" departDelay="0.00" arrival="29.00" arrivalLane="513701212#0_1" arrivalPos="0.20" arrivalSpeed="24.54" duration="27.00" routeLength="344.84" waitingTime="0.00" waitingCount="0" stopTime="0.00" timeLoss="10.77" rerouteNo="0" devices="tripinfo_driver_11" vType="DEFAULT_VEHTYPE" speedFactor="1.03" vaporized=""/>
    <tripinfo id="driver_90" depart="10.00" departLane="-287958606#2_0" departPos="0.20" departSpeed="0.00" departDelay="0.00" arrival="31.00" arrivalLane="287958607#1_0" arrivalPos="69.35" arrivalSpeed="13.94" duration="21.00" routeLength="212.64" waitingTime="0.00" waitingCount="0" stopTime="0.00" timeLoss="9.40" rerouteNo="0" devices="tripinfo_driver_90" vType="DEFAULT_VEHTYPE" speedFactor="0.89" vaporized="traci"/>
    <tripinfo id="driver_39" depart="4.00" departLane="27398045#2_0" departPos="5.10" departSpeed="0.00" departDelay="0.00" arrival="33.00" arrivalLane="425516617#10_0" arrivalPos="4.15" arrivalSpeed="4.65" duration="29.00" routeLength="233.86" waitingTime="0.00" waitingCount="0" stopTime="0.00" timeLoss="7.62" rerouteNo="0" devices="tripinfo_driver_39" vType="DEFAULT_VEHTYPE" speedFactor="0.90" vaporized="traci"/>
    <tripinfo id="driver_5" depart="1.00" departLane="968937447_0" departPos="5.10" departSpeed="0.00" departDelay="0.00" arrival="36.00" arrivalLane="968937447_0" arrivalPos="84.87" arrivalSpeed="0.00" duration="35.00" routeLength="79.77" waitingTime="19.00" waitingCount="1" stopTime="0.00" timeLoss="23.26" rerouteNo="0" devices="tripinfo_driver_5" vType="DEFAULT_VEHTYPE" speedFactor="0.83" vaporized="traci"/>
    <tripinfo id="driver_103" depart="11.00" departLane="461084153#0_0" departPos="5.10" departSpeed="0.00" departDelay="0.00" arrival="36.00" arrivalLane="770522074#4_0" arrivalPos="8.19" arrivalSpeed="18.61" duration="25.00" routeLength="245.61" waitingTime="0.00" waitingCount="0" stopTime="0.00" timeLoss="7.23" rerouteNo="1" devices="tripinfo_driver_103" vType="DEFAULT_VEHTYPE" speedFactor="0.89" vaporized="traci"/>
    <tripinfo id="driver_95" depart="10.00" departLane="204884397#1_0" departPos="5.10" departSpeed="0.00" departDelay="0.00" arrival="42.00" arrivalLane="204884397#1_0" arrivalPos="43.45" arrivalSpeed="8.24" duration="32.00" routeLength="203.18" waitingTime="0.00" waitingCount="0" stopTime="0.00" timeLoss="7.41" rerouteNo="4" devices="tripinfo_driver_95" vType="DEFAULT_VEHTYPE" speedFactor="1.01" vaporized="traci"/>
    <personinfo id="customer_2" depart="44.00" type="DEFAULT_PEDTYPE">
        <stop duration="1.00" arrival="45.00" arrivalPos="58.88" actType="waiting"/>
    </personinfo>
    <tripinfo id="driver_43" depart="5.00" departLane="-297445459_0" departPos="5.10" departSpeed="0.00" departDelay="0.00" arrival="45.00" arrivalLane="-277451471_0" arrivalPos="7.44" arrivalSpeed="0.01" duration="40.00" routeLength="184.40" waitingTime="3.00" waitingCount="1" stopTime="6.00" timeLoss="13.14" rerouteNo="40" devices="tripinfo_driver_43" vType="DEFAULT_VEHTYPE" speedFactor="1.04" vaporized="traci"/>
    <tripinfo id="driver_62" depart="7.00" departLane="-28841115#5_0" departPos="4.38" departSpeed="0.00" departDelay="0.00" arrival="49.00" arrivalLane="674757886#0_0" arrivalPos="1.33" arrivalSpeed="5.57" duration="42.00" routeLength="359.27" waitingTime="0.00" waitingCount="0" stopTime="0.00" timeLoss="11.03" rerouteNo="0" devices="tripinfo_driver_62" vType="DEFAULT_VEHTYPE" speedFactor="0.99" vaporized=""/>
    <tripinfo id="driver_41" depart="4.00" departLane="619979117#0_0" departPos="5.10" departSpeed="0.00" departDelay="0.00" arrival="51.00" arrivalLane="-88572965#2_0" arrivalPos="0.24" arrivalSpeed="4.99" duration="47.00" routeLength="333.42" waitingTime="15.00" waitingCount="1" stopTime="0.00" timeLoss="27.41" rerouteNo="0" devices="tripinfo_driver_41" vType="DEFAULT_VEHTYPE" speedFactor="0.96" vaporized=""/>
    <tripinfo id="driver_29" depart="3.00" departLane="-224384019#1_0" departPos="5.10" departSpeed="0.00" departDelay="0.00" arrival="53.00" arrivalLane="-88572965#1_0" arrivalPos="59.85" arrivalSpeed="15.47" duration="50.00" routeLength="376.82" waitingTime="7.00" waitingCount="1" stopTime="0.00" timeLoss="30.49" rerouteNo="0" devices="tripinfo_driver_29" vType="DEFAULT_VEHTYPE" speedFactor="0.93" vaporized="traci"/>
    <tripinfo id="driver_85" depart="10.00" departLane="-425516661#0_0" departPos="5.10" departSpeed="0.00" departDelay="0.00" arrival="53.00" arrivalLane="-148847000_0" arrivalPos="61.16" arrivalSpeed="13.82" duration="43.00" routeLength="440.15" waitingTime="0.00" waitingCount="0" stopTime="0.00" timeLoss="8.89" rerouteNo="0" devices="tripinfo_driver_85" vType="DEFAULT_VEHTYPE" speedFactor="1.00" vaporized="traci"/>
    <tripinfo id="driver_92" depart="10.00" departLane="-770522074#2_0" departPos="0.10" departSpeed="0.00" departDelay="0.00" arrival="54.00" arrivalLane="26988009#2_1" arrivalPos="16.76" arrivalSpeed="19.94" duration="44.00" routeLength="422.42" waitingTime="4.00" waitingCount="1" stopTime="0.00" timeLoss="21.59" rerouteNo="1" devices="tripinfo_driver_92" vType="DEFAULT_VEHTYPE" speedFactor="0.92" vaporized="traci"/>
    <tripinfo id="driver_24" depart="3.00" departLane="425516645_0" departPos="5.10" departSpeed="0.00" departDelay="0.00" arrival="55.00" arrivalLane=":65295287_7_0" arrivalPos="7.10" arrivalSpeed="19.64" duration="52.00" routeLength="148.62" waitingTime="33.00" waitingCount="1" stopTime="0.00" timeLoss="44.52" rerouteNo="2" devices="tripinfo_driver_24" vType="DEFAULT_VEHTYPE" speedFactor="0.83" vaporized="traci"/>
    <tripinfo id="driver_12" depart="2.00" departLane="-425624293_0" departPos="5.10" departSpeed="0.00" departDelay="0.00" arrival="56.00" arrivalLane="981636499#2_0" arrivalPos="1.50" arrivalSpeed="23.29" duration="54.00" routeLength="451.21" waitingTime="9.00" waitingCount="1" stopTime="0.00" timeLoss="34.66" rerouteNo="0" devices="tripinfo_driver_12" vType="DEFAULT_VEHTYPE" speedFactor="1.05" vaporized=""/>
    <tripinfo id="driver_117" depart="45.00" departLane="527857414#1_0" departPos="5.10" departSpeed="0.00" departDelay="0.00" arrival="57.00" arrivalLane="527857410#0_0" arrivalPos="0.85" arrivalSpeed="9.32" duration="12.00" routeLength="99.25" waitingTime="0.00" waitingCount="0" stopTime="0.00" timeLoss="2.51" rerouteNo="0" devices="tripinfo_driver_117" vType="DEFAULT_VEHTYPE" speedFactor="0.94" vaporized=""/>
    <tripinfo id="driver_50" depart="5.00" departLane="766116624#0_0" departPos="5.10" departSpeed="0.00" departDelay="0.00" arrival="58.00" arrivalLane="88572948#2_0" arrivalPos="2.20" arrivalSpeed="22.92" duration="53.00" routeLength="444.54" waitingTime="14.00" waitingCount="1" stopTime="0.00" timeLoss="32.64" rerouteNo="0" devices="tripinfo_driver_50" vType="DEFAULT_VEHTYPE" speedFactor="0.85" vaporized=""/>
    <tripinfo id="driver_40" depart="4.00" departLane="-417099350_0" departPos="5.10" departSpeed="0.00" departDelay="0.00" arrival="60.00" arrivalLane="674757887#1_0" arrivalPos="5.16" arrivalSpeed="7.82" duration="56.00" routeLength="513.34" waitingTime="16.00" waitingCount="1" stopTime="0.00" timeLoss="30.73" rerouteNo="1" devices="tripinfo_driver_40" vType="DEFAULT_VEHTYPE" speedFactor="1.03" vaporized="traci"/>
    <tripinfo id="driver_78" depart="9.00" departLane="-254299113#1_0" departPos="5.10" departSpeed="0.00" departDelay="0.00" arrival="72.00" arrivalLane="-30029708#1_0" arrivalPos="0.15" arrivalSpeed="7.63" duration="63.00" routeLength="642.91" waitingTime="0.00" waitingCount="0" stopTime="0.00" timeLoss="14.60" rerouteNo="0" devices="tripinfo_driver_78" vType="DEFAULT_VEHTYPE" speedFactor="1.09" vaporized=""/>
    <tripinfo id="driver_73" depart="8.00" departLane="133733593#0_0" departPos="0.20" departSpeed="0.00" departDelay="0.00" arrival="75.00" arrivalLane="406946351_0" arrivalPos="21.17" arrivalSpeed="0.00" duration="67.00" routeLength="362.57" waitingTime="30.00" waitingCount="1" stopTime="0.00" timeLoss="44.43" rerouteNo="0" devices="tripinfo_driver_73" vType="DEFAULT_VEHTYPE" speedFactor="0.96" vaporized="traci"/>
    <tripinfo id="driver_20" depart="3.00" departLane="-1020512096#1_0" departPos="5.10" departSpeed="0.00" departDelay="0.00" arrival="76.00" arrivalLane="72981813#2_0" arrivalPos="2.81" arrivalSpeed="6.98" duration="73.00" routeLength="699.40" waitingTime="0.00" waitingCount="0" stopTime="0.00" timeLoss="17.44" rerouteNo="1" devices="tripinfo_driver_20" vType="DEFAULT_VEHTYPE" speedFactor="1.02" vaporized="traci"/>
    <tripinfo id="driver_31" depart="3.00" departLane="619979109#1_0" departPos="0.63" departSpeed="0.00" departDelay="0.00" arrival="80.00" arrivalLane="619979107_0" arrivalPos="17.10" arrivalSpeed="0.00" duration="77.00" routeLength="135.32" waitingTime="60.00" waitingCount="2" stopTime="0.00" timeLoss="70.73" rerouteNo="0" devices="tripinfo_driver_31" vType="DEFAULT_VEHTYPE" speedFactor="1.15" vaporized="traci"/>
    <tripinfo id="driver_0" depart="1.00" departLane="-30029878#7_0" departPos="5.10" departSpeed="0.00" departDelay="0.00" arrival="81.00" arrivalLane="-288065247#0_0" arrivalPos="35.11" arrivalSpeed="3.96" duration="80.00" routeLength="828.38" waitingTime="0.00" waitingCount="0" stopTime="3.00" timeLoss="21.48" rerouteNo="1" devices="tripinfo_driver_0" vType="DEFAULT_VEHTYPE" speedFactor="1.06" vaporized=""/>
    <tripinfo id="driver_47" depart="5.00" departLane="254758114#6_0" departPos="0.60" departSpeed="0.00" departDelay="0.00" arrival="82.00" arrivalLane="-512523366#1_0" arrivalPos="85.80" arrivalSpeed="0.00" duration="77.00" routeLength="330.81" waitingTime="36.00" waitingCount="1" stopTime="0.00" timeLoss="44.55" rerouteNo="1" devices="tripinfo_driver_47" vType="DEFAULT_VEHTYPE" speedFactor="0.90" vaporized="traci"/>
    <tripinfo id="driver_128" depart="73.00" departLane="-399156531#4_0" departPos="5.10" departSpeed="0.00" departDelay="0.00" arrival="82.00" arrivalLane="-399156531#4_0" arrivalPos="66.93" arrivalSpeed="10.53" duration="9.00" routeLength="61.83" waitingTime="0.00" waitingCount="0" stopTime="0.00" timeLoss="5.25" rerouteNo="9" devices="tripinfo_driver_128" vType="DEFAULT_VEHTYPE" speedFactor="1.01" vaporized="traci"/>
    <tripinfo id="driver_94" depart="10.00" departLane="1030275358_0" departPos="5.10" departSpeed="0.00" departDelay="0.00" arrival="84.00" arrivalLane="-23866015_0" arrivalPos="41.68" arrivalSpeed="0.00" duration="74.00" routeLength="370.30" waitingTime="24.00" waitingCount="1" stopTime="0.00" timeLoss="34.33" rerouteNo="0" devices="tripinfo_driver_94" vType="DEFAULT_VEHTYPE" speedFactor="1.06" vaporized="traci"/>
    <tripinfo id="driver_124" depart="58.00" departLane="-446233234_0" departPos="5.10" departSpeed="0.00" departDelay="0.00" arrival="84.00" arrivalLane=":65308283_9_0" arrivalPos="2.85" arrivalSpeed="3.71" duration="26.00" routeLength="84.69" waitingTime="0.00" waitingCount="0" stopTime="6.00" timeLoss="9.79" rerouteNo="25" devices="tripinfo_driver_124" vType="DEFAULT_VEHTYPE" speedFactor="1.03" vaporized="traci"/>
    <tripinfo id="driver_87" depart="10.00" departLane="-8916453_0" departPos="5.10" departSpeed="0.00" departDelay="0.00" arrival="87.00" arrivalLane="254971070#2_1" arrivalPos="6.66" arrivalSpeed="6.95" duration="77.00" routeLength="755.93" waitingTime="0.00" waitingCount="0" stopTime="0.00" timeLoss="14.09" rerouteNo="0" devices="tripinfo_driver_87" vType="DEFAULT_VEHTYPE" speedFactor="1.01" vaporized="traci"/>
    <tripinfo id="driver_10" depart="2.00" departLane="425516648_0" departPos="5.10" departSpeed="0.00" departDelay="0.00" arrival="91.00" arrivalLane="-287958606#2_0" arrivalPos="0.20" arrivalSpeed="3.61" duration="89.00" routeLength="691.39" waitingTime="22.00" waitingCount="2" stopTime="0.00" timeLoss="58.94" rerouteNo="0" devices="tripinfo_driver_10" vType="DEFAULT_VEHTYPE" speedFactor="1.09" vaporized=""/>
    <tripinfo id="driver_102" depart="11.00" departLane="-254971069#2_0" departPos="0.20" departSpeed="0.00" departDelay="0.00" arrival="92.00" arrivalLane=":65352417_12_0" arrivalPos="0.44" arrivalSpeed="3.74" duration="81.00" routeLength="873.02" waitingTime="6.00" waitingCount="1" stopTime="0.00" timeLoss="33.34" rerouteNo="1" devices="tripinfo_driver_102" vType="DEFAULT_VEHTYPE" speedFactor="0.95" vaporized="traci"/>
    <tripinfo id="driver_38" depart="4.00" departLane="-769489484#0_0" departPos="5.10" departSpeed="0.00" departDelay="0.00" arrival="93.00" arrivalLane=":2081671274_6_0" arrivalPos="10.81" arrivalSpeed="6.29" duration="89.00" routeLength="479.90" waitingTime="40.00" waitingCount="1" stopTime="0.00" timeLoss="57.75" rerouteNo="0" devices="tripinfo_driver_38" vType="DEFAULT_VEHTYPE" speedFactor="1.10" vaporized="traci"/>
    <tripinfo id="driver_116" depart="43.00" departLane="-206629822_0" departPos="0.20" departSpeed="0.00" departDelay="0.00" arrival="93.00" arrivalLane=":65299327_13_0" arrivalPos="12.64" arrivalSpeed="6.46" duration="50.00" routeLength="90.31" waitingTime="34.00" waitingCount="1" stopTime="0.00" timeLoss="44.90" rerouteNo="0" devices="tripinfo_driver_116" vType="DEFAULT_VEHTYPE" speedFactor="0.99" vaporized="traci"/>
    <tripinfo id="driver_18" depart="3.00" departLane="-133781783#1_0" departPos="3.67" departSpeed="0.00" departDelay="0.00" arrival="93.00" arrivalLane="-204967524#2_1" arrivalPos="0.20" arrivalSpeed="8.52" duration="90.00" routeLength="461.19" waitingTime="30.00" waitingCount="2" stopTime="0.00" timeLoss="53.69" rerouteNo="0" devices="tripinfo_driver_18" vType="DEFAULT_VEHTYPE" speedFactor="0.94" vaporized=""/>
    <tripinfo id="driver_105" depart="11.00" departLane="-619979111#1_0" departPos="4.86" departSpeed="0.00" departDelay="0.00" arrival="93.00" arrivalLane="1024537343_2" arrivalPos="0.20" arrivalSpeed="6.93" duration="82.00" routeLength="110.98" waitingTime="59.00" waitingCount="2" stopTime="0.00" timeLoss="74.60" rerouteNo="0" devices="tripinfo_driver_105" vType="DEFAULT_VEHTYPE" speedFactor="1.01" vaporized=""/>
    <tripinfo id="driver_118" depart="50.00" departLane="968937451#1_0" departPos="5.10" departSpeed="0.00" departDelay="0.00" arrival="96.00" arrivalLane="968937451#2_2" arrivalPos="19.29" arrivalSpeed="8.88" duration="46.00" routeLength="161.34" waitingTime="21.00" waitingCount="1" stopTime="0.00" timeLoss="27.37" rerouteNo="0" devices="tripinfo_driver_118" vType="DEFAULT_VEHTYPE" speedFactor="1.02" vaporized="traci"/>
    <tripinfo id="driver_91" depart="10.00" departLane="254971067#1_0" departPos="5.10" departSpeed="0.00" departDelay="0.00" arrival="96.00" arrivalLane="144489134#0_0" arrivalPos="0.20" arrivalSpeed="9.33" duration="86.00" routeLength="653.15" waitingTime="18.00" waitingCount="3" stopTime="0.00" timeLoss="48.01" rerouteNo="0" devices="tripinfo_driver_91" vType="DEFAULT_VEHTYPE" speedFactor="0.83" vaporized=""/>
    <personinfo id="customer_9" depart="95.00" type="DEFAULT_PEDTYPE">
        <stop duration="2.00" arrival="97.00" arrivalPos="0.00" actType="waiting"/>
    </personinfo>
    <tripinfo id="driver_115" depart="39.00" departLane="-30030485#4_0" departPos="5.10" departSpeed="0.00" departDelay="0.00" arrival="98.00" arrivalLane="148846995#1_1" arrivalPos="1.71" arrivalSpeed="5.01" duration="59.00" routeLength="502.54" waitingTime="0.00" waitingCount="0" stopTime="0.00" timeLoss="12.81" rerouteNo="3" devices="tripinfo_driver_115" vType="DEFAULT_VEHTYPE" speedFactor="1.00" vaporized="traci"/>
    <tripinfo id="driver_114" depart="36.00" departLane="26988009#2_0" departPos="5.10" departSpeed="0.00" departDelay="0.00" arrival="100.00" arrivalLane="254759938#0_0" arrivalPos="0.19" arrivalSpeed="22.55" duration="64.00" routeLength="442.95" waitingTime="20.00" waitingCount="1" stopTime="0.00" timeLoss="38.61" rerouteNo="0" devices="tripinfo_driver_114" vType="DEFAULT_VEHTYPE" speedFactor="1.18" vaporized=""/>
    <personinfo id="customer_10" depart="102.00" type="DEFAULT_PEDTYPE">
        <stop duration="1.00" arrival="103.00" arrivalPos="66.91" actType="waiting"/>
    </personinfo>
    <tripinfo id="driver_42" depart="4.00" departLane="28841121#0_0" departPos="1.37" departSpeed="0.00" departDelay="0.00" arrival="103.00" arrivalLane="-290052331#2_0" arrivalPos="0.20" arrivalSpeed="11.77" duration="99.00" routeLength="352.87" waitingTime="52.00" waitingCount="3" stopTime="0.00" timeLoss="74.21" rerouteNo="0" devices="tripinfo_driver_42" vType="DEFAULT_VEHTYPE" speedFactor="1.09" vaporized=""/>
    <tripinfo id="driver_80" depart="9.00" departLane="-254758127#3_0" departPos="5.10" departSpeed="0.00" departDelay="0.00" arrival="104.00" arrivalLane="-254758127#2_0" arrivalPos="40.29" arrivalSpeed="5.74" duration="95.00" routeLength="706.80" waitingTime="11.00" waitingCount="2" stopTime="3.00" timeLoss="37.83" rerouteNo="1" devices="tripinfo_driver_80" vType="DEFAULT_VEHTYPE" speedFactor="1.00" vaporized=""/>
    <tripinfo id="driver_35" depart="4.00" departLane="850158700#2_0" departPos="1.73" departSpeed="0.00" departDelay="0.00" arrival="105.00" arrivalLane="-254466686#5_0" arrivalPos="0.69" arrivalSpeed="2.05" duration="101.00" routeLength="504.77" waitingTime="49.00" waitingCount="2" stopTime="3.00" timeLoss="75.24" rerouteNo="1" devices="tripinfo_driver_35" vType="DEFAULT_VEHTYPE" speedFactor="1.02" vaporized=""/>
    <tripinfo id="driver_26" depart="3.00" departLane="-8918970_0" departPos="5.10" departSpeed="0.00" departDelay="0.00" arrival="108.00" arrivalLane="27166406#1_0" arrivalPos="85.18" arrivalSpeed="0.00" duration="105.00" routeLength="439.36" waitingTime="50.00" waitingCount="2" stopTime="0.00" timeLoss="76.12" rerouteNo="0" devices="tripinfo_driver_26" vType="DEFAULT_VEHTYPE" speedFactor="0.92" vaporized="traci"/>
    <tripinfo id="driver_74" depart="8.00" departLane="254758115#1_0" departPos="5.10" departSpeed="0.00" departDelay="0.00" arrival="109.00" arrivalLane="26988009#3_2" arrivalPos="0.62" arrivalSpeed="0.00" duration="101.00" routeLength="456.86" waitingTime="47.00" waitingCount="3" stopTime="0.00" timeLoss="68.71" rerouteNo="0" devices="tripinfo_driver_74" vType="DEFAULT_VEHTYPE" speedFactor="0.98" vaporized="traci"/>
    <tripinfo id="driver_68" depart="7.00" departLane="88572922_0" departPos="5.10" departSpeed="0.00" departDelay="0.00" arrival="112.00" arrivalLane="417269470#4_0" arrivalPos="7.49" arrivalSpeed="0.00" duration="105.00" routeLength="404.10" waitingTime="64.00" waitingCount="3" stopTime="0.00" timeLoss="82.25" rerouteNo="0" devices="tripinfo_driver_68" vType="DEFAULT_VEHTYPE" speedFactor="1.02" vaporized="traci"/>
    <tripinfo id="driver_112" depart="26.00" departLane="-619979114_0" departPos="0.20" departSpeed="0.00" departDelay="0.00" arrival="112.00" arrivalLane="736374827#1_0" arrivalPos="0.98" arrivalSpeed="0.00" duration="86.00" routeLength="261.96" waitingTime="52.00" waitingCount="3" stopTime="0.00" timeLoss="72.89" rerouteNo="1" devices="tripinfo_driver_112" vType="DEFAULT_VEHTYPE" speedFactor="1.01" vaporized="traci"/>
    <tripinfo id="driver_131" depart="82.00" departLane="-8916567#0_0" departPos="5.10" departSpeed="0.00" departDelay="0.00" arrival="114.00" arrivalLane="8920807_0" arrivalPos="67.80" arrivalSpeed="4.60" duration="32.00" routeLength="217.50" waitingTime="0.00" waitingCount="0" stopTime="0.00" timeLoss="12.16" rerouteNo="1" devices="tripinfo_driver_131" vType="DEFAULT_VEHTYPE" speedFactor="0.95" vaporized="traci"/>
    <tripinfo id="driver_142" depart="98.00" departLane="-254756527#1_0" departPos="5.10" departSpeed="0.00" departDelay="0.00" arrival="114.00" arrivalLane="399156531#0_0" arrivalPos="13.37" arrivalSpeed="12.74" duration="16.00" routeLength="98.23" waitingTime="0.00" waitingCount="0" stopTime="0.00" timeLoss="8.61" rerouteNo="0" devices="tripinfo_driver_142" vType="DEFAULT_VEHTYPE" speedFactor="1.07" vaporized="traci"/>
    <tripinfo id="driver_143" depart="101.00" departLane="-297445459_0" departPos="5.10" departSpeed="0.00" departDelay="0.00" arrival="117.00" arrivalLane="-781130063_0" arrivalPos="6.38" arrivalSpeed="7.74" duration="16.00" routeLength="104.15" waitingTime="0.00" waitingCount="0" stopTime="0.00" timeLoss="2.43" rerouteNo="16" devices="tripinfo_driver_143" vType="DEFAULT_VEHTYPE" speedFactor="0.93" vaporized="traci"/>
    <tripinfo id="driver_65" depart="7.00" departLane="290052332#1_0" departPos="0.44" departSpeed="0.00" departDelay="0.00" arrival="118.00" arrivalLane="88572932#1_0" arrivalPos="137.75" arrivalSpeed="16.02" duration="111.00" routeLength="830.68" waitingTime="48.00" waitingCount="2" stopTime="0.00" timeLoss="71.83" rerouteNo="0" devices="tripinfo_driver_65" vType="DEFAULT_VEHTYPE" speedFactor="0.91" vaporized="traci"/>
    <tripinfo id="driver_125" depart="59.00" departLane="111560680#0_0" departPos="2.92" departSpeed="0.00" departDelay="0.00" arrival="119.00" arrivalLane="-772972816_0" arrivalPos="7.89" arrivalSpeed="22.99" duration="60.00" routeLength="703.25" waitingTime="9.00" waitingCount="1" stopTime="0.00" timeLoss="30.54" rerouteNo="0" devices="tripinfo_driver_125" vType="DEFAULT_VEHTYPE" speedFactor="1.07" vaporized=""/>
    <tripinfo id="driver_14" depart="2.00" departLane="254758131#2_0" departPos="5.10" departSpeed="0.00" departDelay="0.00" arrival="120.00" arrivalLane="277480563_1" arrivalPos="66.50" arrivalSpeed="8.55" duration="118.00" routeLength="586.64" waitingTime="35.00" waitingCount="2" stopTime="0.00" timeLoss="50.04" rerouteNo="0" devices="tripinfo_driver_14" vType="DEFAULT_VEHTYPE" speedFactor="0.99" vaporized="traci"/>
    <tripinfo id="driver_101" depart="11.00" departLane="87297164#10_0" departPos="5.10" departSpeed="0.00" departDelay="0.00" arrival="122.00" arrivalLane="27398045#2_0" arrivalPos="132.29" arrivalSpeed="12.37" duration="111.00" routeLength="923.82" waitingTime="20.00" waitingCount="1" stopTime="3.00" timeLoss="41.79" rerouteNo="1" devices="tripinfo_driver_101" vType="DEFAULT_VEHTYPE" speedFactor="0.97" vaporized=""/>
    <tripinfo id="driver_1" depart="1.00" departLane="-254758127#5_0" departPos="5.10" departSpeed="0.00" departDelay="0.00" arrival="123.00" arrivalLane=":1221046425_0_0" arrivalPos="5.13" arrivalSpeed="5.73" duration="122.00" routeLength="1147.94" waitingTime="15.00" waitingCount="1" stopTime="0.00" timeLoss="48.69" rerouteNo="2" devices="tripinfo_driver_1" vType="DEFAULT_VEHTYPE" speedFactor="0.94" vaporized="traci"/>
    <tripinfo id="driver_4" depart="1.00" departLane="91181767_0" departPos="5.10" departSpeed="0.00" departDelay="0.00" arrival="123.00" arrivalLane="-225847532_0" arrivalPos="88.55" arrivalSpeed="9.10" duration="122.00" routeLength="434.58" waitingTime="54.00" waitingCount="2" stopTime="3.00" timeLoss="71.06" rerouteNo="1" devices="tripinfo_driver_4" vType="DEFAULT_VEHTYPE" speedFactor="1.03" vaporized=""/>
    <tripinfo id="driver_34" depart="4.00" departLane="-47108592#0_0" departPos="5.10" departSpeed="0.00" departDelay="0.00" arrival="125.00" arrivalLane="-28738271#0_0" arrivalPos="86.90" arrivalSpeed="6.81" duration="121.00" routeLength="971.50" waitingTime="0.00" waitingCount="0" stopTime="9.00" timeLoss="33.83" rerouteNo="3" devices="tripinfo_driver_34" vType="DEFAULT_VEHTYPE" speedFactor="0.99" vaporized=""/>
    <tripinfo id="driver_27" depart="3.00" departLane="-945294697_0" departPos="5.10" departSpeed="0.00" departDelay="0.00" arrival="128.00" arrivalLane="-767935507_0" arrivalPos="0.20" arrivalSpeed="17.06" duration="125.00" routeLength="260.60" waitingTime="87.00" waitingCount="2" stopTime="0.00" timeLoss="105.56" rerouteNo="0" devices="tripinfo_driver_27" vType="DEFAULT_VEHTYPE" speedFactor="0.95" vaporized=""/>
    <tripinfo id="driver_119" depart="52.00" departLane="-619979111#1_0" departPos="4.86" departSpeed="0.00" departDelay="0.00" arrival="129.00" arrivalLane="934194966#0_0" arrivalPos="38.23" arrivalSpeed="0.00" duration="77.00" routeLength="276.14" waitingTime="38.00" waitingCount="3" stopTime="0.00" timeLoss="61.92" rerouteNo="1" devices="tripinfo_driver_119" vType="DEFAULT_VEHTYPE" speedFactor="1.06" vaporized="traci"/>
    <tripinfo id="driver_48" depart="5.00" departLane="286003244#0_0" departPos="0.20" departSpeed="0.00" departDelay="0.00" arrival="130.00" arrivalLane="27166406#1_1" arrivalPos="83.96" arrivalSpeed="5.28" duration="125.00" routeLength="1030.49" waitingTime="31.00" waitingCount="2" stopTime="0.00" timeLoss="56.91" rerouteNo="0" devices="tripinfo_driver_48" vType="DEFAULT_VEHTYPE" speedFactor="0.88" vaporized="traci"/>
    <tripinfo id="driver_71" depart="8.00" departLane="-945294696#1_0" departPos="0.20" departSpeed="0.00" departDelay="0.00" arrival="131.00" arrivalLane="-767935507_0" arrivalPos="0.20" arrivalSpeed="18.60" duration="123.00" routeLength="330.25" waitingTime="79.00" waitingCount="2" stopTime="0.00" timeLoss="98.03" rerouteNo="0" devices="tripinfo_driver_71" vType="DEFAULT_VEHTYPE" speedFactor="0.94" vaporized=""/>
    <tripinfo id="driver_82" depart="9.00" departLane="254758114#3_0" departPos="0.74" departSpeed="0.00" departDelay="0.00" arrival="134.00" arrivalLane="254758126#0_1" arrivalPos="31.91" arrivalSpeed="10.88" duration="125.00" routeLength="705.91" waitingTime="33.00" waitingCount="2" stopTime="0.00" timeLoss="52.42" rerouteNo="1" devices="tripinfo_driver_82" vType="DEFAULT_VEHTYPE" speedFactor="0.97" vaporized="traci"/>
    <tripinfo id="driver_89" depart="10.00" departLane="27054196#0_0" departPos="1.56" departSpeed="0.00" departDelay="0.00" arrival="137.00" arrivalLane="425516645_1" arrivalPos="34.77" arrivalSpeed="1.23" duration="127.00" routeLength="1108.56" waitingTime="18.00" waitingCount="2" stopTime="0.00" timeLoss="75.34" rerouteNo="1" devices="tripinfo_driver_89" vType="DEFAULT_VEHTYPE" speedFactor="1.02" vaporized="traci"/>
    <tripinfo id="driver_157" depart="129.00" departLane="-224384019#2_0" departPos="3.48" departSpeed="0.00" departDelay="0.00" arrival="137.00" arrivalLane="-224384019#0_0" arrivalPos="0.12" arrivalSpeed="7.69" duration="8.00" routeLength="45.92" waitingTime="0.00" waitingCount="0" stopTime="0.00" timeLoss="4.90" rerouteNo="0" devices="tripinfo_driver_157" vType="DEFAULT_VEHTYPE" speedFactor="0.98" vaporized="traci"/>